# vtk DataFile Version 4.2
vtk output
ASCII
DATASET POLYDATA
POINTS 1002 float
46.7611 95.9533 95.5662 49.2662 99.1808 103.952 43.8603 103.076 94.2346 
45.4779 105.861 102.351 51.5678 101.289 98.394 49.8124 105.273 96.8329 
41.8299 96.8087 102.247 39.3042 101.541 101.098 53.224 104.834 104.702 
47.9764 100.345 90.546 44.5627 101.851 106.784 42.4014 97.3884 94.4113 
46.753 96.553 96.2046 46.7693 97.153 96.9823 46.8271 97.7217 97.8821 
46.9517 98.2176 98.8789 47.1732 98.6003 99.9312 47.5153 98.8492 100.961 
47.9598 98.9756 101.894 48.4399 99.035 102.697 48.8893 99.0894 103.376 
47.06 96.4586 95.6054 47.4072 97.0379 95.7101 47.8066 97.6614 95.8898 
48.2536 98.3034 96.1512 48.751 98.9325 96.4921 49.3 99.519 96.8991 
49.8832 100.05 97.3385 50.478 100.517 97.757 51.0527 100.923 98.1125 
46.449 95.9089 95.9555 46.0886 95.9635 96.4606 45.6641 96.1019 97.0908 
45.1688 96.2838 97.8312 44.6118 96.4536 98.6567 44.0235 96.559 99.5211 
43.4325 96.6044 100.357 42.8586 96.6359 101.108 42.3168 96.6947 101.741 
46.9693 95.6678 95 47.2155 95.4928 94.4312 47.4902 95.5445 93.8511 
47.7387 95.8847 93.2592 47.9037 96.4851 92.6779 47.9751 97.2645 92.1442 
47.9916 98.1127 91.6709 47.9924 98.9334 91.2467 47.9874 99.6819 90.8694 
46.5846 95.2695 95.2221 46.3412 94.582 94.9197 45.9498 94.1007 94.6556 
45.3922 94.0445 94.4076 44.7657 94.4243 94.1819 44.1751 95.0457 94.036 
43.6426 95.7187 94.0139 43.1657 96.3464 94.0985 42.7508 96.9009 94.2423 
49.6912 99.3759 103.607 50.1062 99.6102 103.207 50.4958 99.8735 102.745 
50.8428 100.146 102.218 51.1237 100.414 101.632 51.33 100.657 101 
51.4706 100.861 100.335 51.5536 101.026 99.6607 51.5834 101.165 99.0073 
48.5992 98.9226 103.926 47.8678 98.6452 103.861 47.0868 98.3525 103.751 
46.2703 98.0557 103.604 45.4449 97.7587 103.424 44.6355 97.4789 103.215 
43.8587 97.2373 102.984 43.1238 97.0424 102.743 42.4434 96.8992 102.498 
49.8864 99.4406 104.287 50.5418 99.7851 104.613 51.2062 100.228 104.91 
51.8494 100.766 105.154 52.4355 101.388 105.322 52.917 102.099 105.395 
53.2382 102.879 105.356 53.3728 103.644 105.204 53.351 104.305 104.971 
49.1656 99.1742 104.495 48.9581 99.25 105.051 48.6234 99.4239 105.58 
48.166 99.6787 106.053 47.6095 99.9795 106.45 46.9776 100.318 106.74 
46.3019 100.7 106.903 45.6422 101.104 106.953 45.0557 101.499 106.905 
43.9066 103.379 94.9424 43.9661 103.71 95.738 44.0449 104.067 96.6015 
44.1477 104.442 97.5006 44.2783 104.821 98.4048 44.4448 105.17 99.3031 
44.6528 105.457 100.176 44.9015 105.667 100.992 45.181 105.8 101.721 
44.2781 103.357 94.0952 44.7507 103.656 94.0203 45.2796 103.961 94.0433 
45.8626 104.261 94.1849 46.5001 104.541 94.4549 47.185 104.78 94.8475 
47.8886 104.969 95.3288 48.575 105.11 95.8499 49.2214 105.21 96.3612 
43.4735 102.977 94.8447 43.0435 102.862 95.531 42.5703 102.73 96.279 
42.0546 102.584 97.0598 41.5018 102.428 97.8338 40.9374 102.262 98.5715 
40.4048 102.087 99.2651 39.9426 101.907 99.9152 39.5729 101.725 100.525 
44.0705 102.95 93.4329 44.3064 102.814 92.567 44.5722 102.669 91.6746 
44.871 102.514 90.823 45.2625 102.321 90.1617 45.814 102.041 89.8521 
46.4585 101.667 89.8767 47.0582 101.237 90.0667 47.5604 100.787 90.3037 
43.5816 102.702 93.9372 43.2845 102.269 93.6792 42.9757 101.769 93.4846 
42.6768 101.193 93.3752 42.4206 100.534 93.3619 42.241 99.813 93.4513 
42.1652 99.0863 93.637 42.1893 98.4216 93.885 42.2796 97.8554 94.1519 
45.9371 106.068 101.944 46.4363 106.248 101.46 46.9641 106.381 100.897 
47.5027 106.442 100.265 48.0405 106.415 99.5906 48.5459 106.304 98.9243 
48.9798 106.112 98.315 49.3299 105.855 97.7707 49.6049 105.567 97.2776 
44.8271 105.602 102.359 44.1266 105.287 102.345 43.3889 104.919 102.301 
42.6401 104.5 102.221 41.9076 104.035 102.103 41.2196 103.538 101.949 
40.6039 103.026 101.762 40.0766 102.515 101.55 39.6434 102.016 101.323 
46.0999 106.012 102.706 46.8261 106.133 103.071 47.6546 106.219 103.439 
48.5695 106.254 103.793 49.5332 106.215 104.108 50.4916 106.094 104.362 
51.3835 105.89 104.546 52.1457 105.596 104.658 52.7541 105.232 104.703 
45.39 105.718 102.955 45.2963 105.508 103.578 45.1941 105.227 104.198 
45.0828 104.876 104.793 44.9657 104.462 105.341 44.852 103.991 105.82 
44.7499 103.477 106.209 44.6624 102.941 106.501 44.5976 102.394 106.691 
51.8222 101.613 98.1626 52.0171 102.01 97.8982 52.1211 102.492 97.6254 
52.1021 103.052 97.3793 51.9321 103.627 97.191 51.6148 104.129 97.0638 
51.1992 104.531 96.9748 50.7424 104.848 96.9071 50.2755 105.093 96.8597 
52.0974 101.572 99.0146 52.6711 101.869 99.6516 53.2533 102.184 100.305 
53.7807 102.531 100.975 54.1743 102.942 101.695 54.3689 103.425 102.486 
54.336 103.909 103.256 54.0936 104.311 103.884 53.6991 104.612 104.35 
51.2287 101.168 97.5897 50.885 101.001 96.6585 50.5632 100.791 95.6217 
50.2641 100.57 94.5337 49.9917 100.377 93.4521 49.7538 100.239 92.442 
49.4877 100.174 91.5981 49.0924 100.19 91.0184 48.5631 100.26 90.6997 
50.2935 105.498 97.5642 50.8308 105.712 98.3417 51.4049 105.891 99.163 
51.9752 106.005 100.029 52.493 106.024 100.934 52.908 105.937 101.854 
53.1869 105.755 102.742 53.3224 105.496 103.529 53.3253 105.18 104.179 
49.6283 104.928 96.0907 49.4215 104.534 95.2514 49.2124 104.101 94.3179 
49.0173 103.639 93.3226 48.8559 103.163 92.3262 48.7612 102.676 91.4074 
48.7056 102.146 90.7066 48.5767 101.553 90.3634 48.3142 100.936 90.3612 
41.1627 96.9001 102.343 40.475 97.0963 102.387 39.8254 97.4192 102.375 
39.2696 97.8713 102.307 38.8561 98.4572 102.186 38.628 99.1655 102.015 
38.6005 99.9058 101.799 38.7433 100.564 101.556 38.9973 101.103 101.315 
41.759 97.0361 102.859 41.7597 97.3552 103.476 41.8513 97.7678 104.087 
42.0397 98.2602 104.677 42.3198 98.8164 105.234 42.6824 99.4119 105.737 
43.1105 100.033 106.159 43.5823 100.668 106.474 44.0752 101.287 106.677 
41.5482 96.6683 101.665 41.3232 96.5728 100.974 41.2026 96.5432 100.172 
41.2266 96.5786 99.2816 41.3884 96.6544 98.344 41.6332 96.7489 97.4099 
41.8876 96.8615 96.5302 42.1029 97.0015 95.7346 42.2728 97.1771 95.0305 
39.3176 101.639 101.83 39.4548 101.724 102.622 39.732 101.791 103.423 
40.158 101.836 104.178 40.7357 101.855 104.847 41.4328 101.852 105.416 
42.2014 101.848 105.887 43.0034 101.849 106.267 43.8002 101.85 106.563 
39.1806 101.168 100.499 39.1514 100.748 99.8397 39.2499 100.284 99.1399 
39.4988 99.7936 98.4272 39.8982 99.3031 97.72 40.4124 98.8448 97.019 
40.9684 98.4334 96.3181 41.5006 98.061 95.6287 41.9814 97.7147 94.9836 
52.7638 104.717 105.172 52.1628 104.558 105.617 51.4089 104.347 106.016 
50.5035 104.078 106.362 49.4898 103.753 106.645 48.4236 103.385 106.844 
47.3438 102.989 106.955 46.3075 102.584 106.981 45.3744 102.2 106.918 
47.3519 100.016 90.6644 46.6715 99.6258 90.8293 45.9617 99.1743 91.0298 
45.2289 98.6842 91.2612 44.4982 98.1876 91.5022 43.8331 97.7509 91.8117 
43.3242 97.4635 92.3028 42.9778 97.3473 92.9695 42.6957 97.3438 93.701 
47.087 97.0614 96.3172 47.4804 97.6314 96.5045 47.1493 97.6615 97.1716 
47.9317 98.2378 96.771 47.6013 98.2135 97.4415 47.2693 98.2157 98.1488 
48.4433 98.8497 97.1163 48.1252 98.7869 97.7903 47.799 98.7331 98.4973 
47.4776 98.6769 99.2215 49.0272 99.426 97.5298 48.7329 99.341 98.2066 
48.4229 99.249 98.9111 48.1102 99.139 99.6253 47.8059 99.0074 100.318 
49.6692 99.9468 97.975 49.4226 99.8389 98.6532 49.1447 99.7213 99.3527 
48.8495 99.5756 100.052 48.5538 99.3962 100.723 48.2561 99.1935 101.34 
50.336 100.407 98.396 50.1565 100.282 99.0723 49.9346 100.139 99.7634 
49.6747 99.9664 100.447 49.3914 99.7541 101.097 49.0891 99.5164 101.695 
48.7693 99.2712 102.229 50.9891 100.808 98.7447 50.8837 100.675 99.4133 
50.7307 100.516 100.097 50.5258 100.323 100.768 50.2709 100.091 101.406 
49.9685 99.8322 101.993 49.6302 99.5659 102.517 49.2666 99.3134 102.976 
47.2907 96.2774 95.0128 47.5694 96.2112 94.4092 47.6616 96.9566 95.0941 
47.8924 96.3313 93.7855 47.9664 96.9819 94.4646 48.0854 97.6653 95.2637 
48.2072 96.6741 93.1391 48.3187 97.1541 93.8071 48.4076 97.7626 94.6208 
48.5541 98.3743 95.5295 48.4383 97.2389 92.5054 48.6698 97.4965 93.1186 
48.7622 97.9746 93.9445 48.8832 98.5203 94.8861 49.0648 99.0515 95.8856 
48.5579 97.9725 91.9351 48.9398 98.0246 92.4492 49.1052 98.3224 93.2436 
49.217 98.7615 94.2132 49.386 99.2313 95.2566 49.6074 99.6776 96.3164 
48.5975 98.7746 91.4467 49.0875 98.7086 91.8603 49.363 98.8307 92.5815 
49.5102 99.1248 93.5412 49.6781 99.5 94.6114 49.898 99.8897 95.711 
50.1646 100.242 96.7785 48.5953 99.5539 91.0352 49.1276 99.463 91.3833 
49.4869 99.4797 92.0223 49.6982 99.6321 92.9318 49.8929 99.8832 93.9909 
50.1299 100.184 95.1011 50.4031 100.483 96.1964 50.7153 100.736 97.2161 
48.8745 100.89 90.6465 49.0601 101.541 90.879 49.3282 100.867 91.1839 
49.1388 102.158 91.4657 49.4549 101.553 91.6657 49.6663 100.893 91.9974 
49.2318 102.723 92.313 49.5704 102.198 92.4231 49.8284 101.6 92.6551 
49.9715 100.964 93.0056 49.4001 103.26 93.281 49.7577 102.801 93.3335 
50.0545 102.266 93.4873 50.2476 101.667 93.7475 50.3151 101.073 94.1059 
49.6144 103.778 94.276 49.9994 103.379 94.3024 50.3382 102.901 94.4048 
50.5844 102.341 94.5941 50.6995 101.75 94.8748 50.6827 101.219 95.2307 
49.8441 104.263 95.2301 50.2588 103.919 95.2548 50.6411 103.499 95.3312 
50.9457 102.987 95.4701 51.12 102.407 95.6864 51.1503 101.848 95.9788 
51.0603 101.377 96.3183 50.0721 104.705 96.0948 50.5144 104.412 96.1299 
50.9384 104.045 96.1972 51.302 103.589 96.304 51.5456 103.039 96.4708 
51.6383 102.459 96.7089 51.5952 101.94 97.0001 51.4478 101.513 97.3061 
52.3678 101.953 98.7872 52.5571 102.421 98.5294 52.9429 102.321 99.4304 
52.6264 102.985 98.2707 53.1044 102.878 99.1828 53.4965 102.729 100.093 
52.5327 103.61 98.0543 53.102 103.533 98.9529 53.5864 103.397 99.8718 
53.9494 103.201 100.791 52.2577 104.195 97.9009 52.8946 104.195 98.7777 
53.4676 104.119 99.6861 53.9239 103.967 100.615 54.2294 103.735 101.56 
51.8373 104.666 97.7931 52.4988 104.75 98.6518 53.1275 104.758 99.546 
53.6657 104.679 100.469 54.0646 104.515 101.423 54.2904 104.254 102.381 
[...]
POINT_DATA 1002
SCALARS Color_Map_Phi float
LOOKUP_TABLE default
6.28319 3.14159 6.28319 3.14159 4.71239 4.71239 1.5708 1.5708 3.69517 
5.72961 2.58802 0.553574 6.28319 6.28319 6.28319 6.28319 3.14159 3.14159 
3.14159 3.14159 3.14159 6.1053 5.8988 5.67687 5.45995 5.26596 5.10322 
4.97131 4.86569 4.78095 0.177881 0.384387 0.606312 0.823235 1.01722 1.17997 
1.31187 1.4175 1.50223 6.18928 6.10703 6.03531 5.97283 5.91832 5.87061 
5.82869 5.79168 5.75886 0.0939024 0.176153 0.247873 0.310351 0.364864 0.412573 
0.454497 0.491504 0.524326 3.31947 3.52598 3.7479 3.96483 4.15881 4.32156 
4.45346 4.55909 4.64383 2.96371 2.75721 2.53528 2.31836 2.12437 1.96162 
1.82972 1.72409 1.63936 3.2355 3.31775 3.38947 3.45194 3.50646 3.55417 
3.59609 3.6331 3.66592 3.04769 2.96544 2.89372 2.83124 2.77673 2.72902 
2.6871 2.65009 2.61727 6.28319 6.28319 6.28319 6.28319 3.14159 3.14159 
3.14159 3.14159 3.14159 6.1053 5.8988 5.67687 5.45995 5.26596 5.10322 
4.97131 4.86569 4.78095 0.177881 0.384387 0.606312 0.823235 1.01722 1.17997 
1.31187 1.4175 1.50223 6.18928 6.10703 6.03531 5.97283 5.91832 5.87061 
5.82869 5.79168 5.75886 0.0939024 0.176153 0.247873 0.310351 0.364864 0.412573 
0.454497 0.491504 0.524326 3.31947 3.52598 3.7479 3.96483 4.15881 4.32156 
4.45346 4.55909 4.64383 2.96371 2.75721 2.53528 2.31836 2.12437 1.96162 
1.82972 1.72409 1.63936 3.2355 3.31775 3.38947 3.45194 3.50646 3.55417 
3.59609 3.6331 3.66592 3.04769 2.96544 2.89372 2.83124 2.77673 2.72902 
2.6871 2.65009 2.61727 4.71239 4.71239 4.71239 4.71239 4.71239 4.71239 
4.71239 4.71239 4.71239 4.60879 4.49914 4.3857 4.27128 4.15881 4.05096 
3.94976 3.85646 3.77161 4.81599 4.92564 5.03907 5.1535 5.26596 5.37381 
5.47502 5.56831 5.65317 4.60879 4.49914 4.3857 4.27128 4.15881 4.05096 
3.94976 3.85646 3.77161 4.81599 4.92564 5.03907 5.1535 5.26596 5.37381 
5.47502 5.56831 5.65317 1.5708 1.5708 1.5708 1.5708 1.5708 1.5708 
1.5708 1.5708 1.5708 1.6744 1.78405 1.89748 2.01191 2.12437 2.23222 
2.33343 2.42672 2.51157 1.4672 1.35755 1.24411 1.12969 1.01722 0.909371 
0.808166 0.714871 0.63002 1.6744 1.78405 1.89748 2.01191 2.12437 2.23222 
2.33343 2.42672 2.51157 1.4672 1.35755 1.24411 1.12969 1.01722 0.909371 
0.808166 0.714871 0.63002 3.60077 3.49669 3.38395 3.26458 3.14159 3.01861 
2.89924 2.78649 2.68241 5.82401 5.92808 6.04083 6.1602 6.28319 0.122983 
0.242354 0.355101 0.459179 6.05603 5.78856 5.97021 5.51259 5.60297 5.78856 
5.26596 5.26596 5.26596 5.26596 5.06749 5.0121 4.91556 4.71239 4.15881 
4.91556 4.83537 4.71239 4.50922 4.15881 3.63622 4.80045 4.71239 4.58941 
4.41268 4.15881 3.82181 3.45456 4.71239 4.62433 4.50922 4.35729 4.15881 
3.91219 3.63622 3.36875 6.01742 5.94343 5.82633 5.88092 5.76745 5.62798 
5.8278 5.71897 5.58911 5.43724 5.78235 5.67854 5.55757 5.41926 5.26596 
5.74316 5.64441 5.5315 5.40467 5.26596 5.11955 5.70914 5.61528 5.50962 
5.3926 5.26596 5.13292 4.99789 5.67937 5.59016 5.49102 5.38246 5.26596 
5.14407 5.02016 4.89798 5.56831 5.47502 5.47502 5.37381 5.37381 5.37381 
5.26596 5.26596 5.26596 5.26596 5.1535 5.1535 5.1535 5.1535 5.1535 
5.03907 5.03907 5.03907 5.03907 5.03907 5.03907 4.92564 4.92564 4.92564 
4.92564 4.92564 4.92564 4.92564 4.81599 4.81599 4.81599 4.81599 4.81599 
4.81599 4.81599 4.81599 4.60879 4.60879 4.49914 4.60879 4.49914 4.3857 
4.60879 4.49914 4.3857 4.27128 4.60879 4.49914 4.3857 4.27128 4.15881 
4.60879 4.49914 4.3857 4.27128 4.15881 4.05096 4.60879 4.49914 4.3857 
4.27128 4.15881 4.05096 3.94976 4.60879 4.49914 4.3857 4.27128 4.15881 
4.05096 3.94976 3.85646 4.5268 4.40462 4.42689 4.28071 4.29185 4.30523 
4.15881 4.15881 4.15881 4.15881 4.04232 4.03217 4.02011 4.00552 3.98753 
3.93376 3.91515 3.89328 3.86721 3.83566 3.7968 3.83461 3.8095 3.78037 
3.74624 3.70581 3.65733 3.59845 3.7454 3.71564 3.68161 3.64243 3.59698 
3.54386 3.48135 3.40735 3.56428 3.45246 3.52338 3.33203 3.40312 3.47739 
3.20576 3.27463 3.34802 3.42551 3.07742 3.14159 3.21128 3.28647 3.36688 
2.95116 3.00855 3.0719 3.14159 3.21784 3.3006 2.83072 2.88006 2.93517 
2.99672 3.06535 3.14159 3.22575 2.7189 2.7598 2.8058 2.85768 2.9163 
2.98259 3.05743 3.14159 3.56428 3.52338 3.45246 3.47739 3.40312 3.33203 
3.42551 3.34802 3.27463 3.20576 3.36688 3.28647 3.21128 3.14159 3.07742 
3.3006 3.21784 3.14159 3.0719 3.00855 2.95116 3.22575 3.14159 3.06535 
2.99672 2.93517 2.88006 2.83072 3.14159 3.05743 2.98259 2.9163 2.85768 
2.8058 2.7598 2.7189 4.5268 4.42689 4.40462 4.30523 4.29185 4.28071 
4.15881 4.15881 4.15881 4.15881 3.98753 4.00552 4.02011 4.03217 4.04232 
3.7968 3.83566 3.86721 3.89328 3.91515 3.93376 3.59845 3.65733 3.70581 
3.74624 3.78037 3.8095 3.83461 3.40735 3.48135 3.54386 3.59698 3.64243 
3.68161 3.71564 3.7454 4.71239 4.80045 4.62433 4.91556 4.71239 4.50922 
5.06749 4.83537 4.58941 4.35729 5.26596 5.0121 4.71239 4.41268 4.15881 
5.51259 5.26596 4.91556 4.50922 4.15881 3.91219 5.78856 5.60297 5.26596 
4.71239 4.15881 3.82181 3.63622 6.05603 5.97021 5.78856 5.26596 4.15881 
3.63622 3.45456 3.36875 0.227158 0.494626 0.312971 0.770593 0.680215 0.494626 
1.01722 1.01722 1.01722 1.01722 1.2157 1.27109 1.36763 1.5708 2.12437 
1.36763 1.44781 1.5708 1.77397 2.12437 2.64697 1.48273 1.5708 1.69378 
1.8705 2.12437 2.46138 2.82862 1.5708 1.65886 1.77397 1.9259 2.12437 
2.371 2.64697 2.91443 1.75639 1.87857 1.8563 2.00248 1.99133 1.97796 
2.12437 2.12437 2.12437 2.12437 2.24087 2.25101 2.26308 2.27767 2.29565 
2.34943 2.36803 2.38991 2.41597 2.44752 2.48639 2.44857 2.47368 2.50281 
2.53694 2.57738 2.62586 2.68474 2.53778 2.56754 2.60157 2.64076 2.68621 
2.73933 2.80184 2.87583 1.6744 1.6744 1.78405 1.6744 1.78405 1.89748 
1.6744 1.78405 1.89748 2.01191 1.6744 1.78405 1.89748 2.01191 2.12437 
1.6744 1.78405 1.89748 2.01191 2.12437 2.23222 1.6744 1.78405 1.89748 
2.01191 2.12437 2.23222 2.33343 1.6744 1.78405 1.89748 2.01191 2.12437 
2.23222 2.33343 2.42672 1.4672 1.35755 1.4672 1.24411 1.35755 1.4672 
1.12969 1.24411 1.35755 1.4672 1.01722 1.12969 1.24411 1.35755 1.4672 
0.909371 1.01722 1.12969 1.24411 1.35755 1.4672 0.808166 0.909371 1.01722 
1.12969 1.24411 1.35755 1.4672 0.714871 0.808166 0.909371 1.01722 1.12969 
1.24411 1.35755 1.4672 0.603812 0.57405 0.693022 0.540021 0.667908 0.792164 
0.500837 0.638778 0.773562 0.900726 0.455383 0.604649 0.751687 0.890581 1.01722 
0.402264 0.564217 0.725619 0.878514 1.01722 1.13912 0.339753 0.515737 0.694072 
0.863926 1.01722 1.15026 1.26302 0.265762 0.456853 0.655207 0.845941 1.01722 
1.16363 1.28529 1.38521 0.227158 0.312971 0.494626 0.494626 0.680215 0.770593 
1.01722 1.01722 1.01722 1.01722 2.12437 1.5708 1.36763 1.27109 1.2157 
2.64697 2.12437 1.77397 1.5708 1.44781 1.36763 2.82862 2.46138 2.12437 
1.8705 1.69378 1.5708 1.48273 2.91443 2.64697 2.371 2.12437 1.9259 
1.77397 1.65886 1.5708 1.75639 1.8563 1.87857 1.97796 1.99133 2.00248 
2.12437 2.12437 2.12437 2.12437 2.29565 2.27767 2.26308 2.25101 2.24087 
2.48639 2.44752 2.41597 2.38991 2.36803 2.34943 2.68474 2.62586 2.57738 
2.53694 2.50281 2.47368 2.44857 2.87583 2.80184 2.73933 2.68621 2.64076 
2.60157 2.56754 2.53778 5.86049 5.90139 5.97231 5.94739 6.02165 6.09275 
5.99927 6.07676 6.15015 6.21902 6.0579 6.13831 6.2135 0 0.0641696 
6.12418 6.20694 6.28319 0.069689 0.13304 0.190437 6.19903 0 0.0762451 
0.144876 0.206423 0.261531 0.310872 0 0.0841597 0.159004 0.225289 0.283913 
0.335793 0.381792 0.422692 5.86049 5.97231 5.90139 6.09275 6.02165 5.94739 
6.21902 6.15015 6.07676 5.99927 0.0641696 0 6.2135 6.13831 6.0579 
0.190437 0.13304 0.069689 6.28319 6.20694 6.12418 0.310872 0.261531 0.206423 
0.144876 0.0762451 6.28319 6.19903 0.422692 0.381792 0.335793 0.283913 0.225289 
0.159004 0.0841597 0 5.67937 5.70914 5.59016 5.74316 5.61528 5.49102 
5.78235 5.64441 5.50962 5.38246 5.8278 5.67854 5.5315 5.3926 5.26596 
5.88092 5.71897 5.55757 5.40467 5.26596 5.14407 5.94343 5.76745 5.58911 
5.41926 5.26596 5.13292 5.02016 6.01742 5.82633 5.62798 5.43724 5.26596 
5.11955 4.99789 4.89798 1.38521 1.28529 1.26302 1.16363 1.15026 1.13912 
1.01722 1.01722 1.01722 1.01722 0.845941 0.863926 0.878514 0.890581 0.900726 
0.655207 0.694072 0.725619 0.751687 0.773562 0.792164 0.456853 0.515737 0.564217 
0.604649 0.638778 0.667908 0.693022 0.265762 0.339753 0.402264 0.455383 0.500837 
0.540021 0.57405 0.603812 
